<?xml version="1.0" encoding="UTF-8"?>

<!-- generated on 2025-05-25 19:44:18 by Eclipse SUMO sumo Version 1.23.1
<sumoConfiguration xmlns:xsi="http://www.w3.org/2001/XMLSchema-instance" xsi:noNamespaceSchemaLocation="http://sumo.dlr.de/xsd/sumoConfiguration.xsd">

    <input>
        <net-file value="simple.net.xml"/>
        <route-files value="simple.rou.xml"/>
    </input>

    <output>
        <fcd-output value="simple_fcd.xml"/>
    </output>

    <time>
        <begin value="0"/>
        <end value="100"/>
    </time>

</sumoConfiguration>
-->

<fcd-export xmlns:xsi="http://www.w3.org/2001/XMLSchema-instance" xsi:noNamespaceSchemaLocation="http://sumo.dlr.de/xsd/fcd_file.xsd">
    <timestep time="0.00">
        <vehicle id="0" x="98.40" y="187.70" angle="180.00" type="DEFAULT_VEHTYPE" speed="0.00" pos="5.10" lane="B2B1_0" slope="0.00"/>
    </timestep>
    <timestep time="1.00">
        <vehicle id="0" x="98.40" y="185.94" angle="180.00" type="DEFAULT_VEHTYPE" speed="1.76" pos="6.86" lane="B2B1_0" slope="0.00"/>
        <vehicle id="1" x="8.30" y="198.40" angle="90.00" type="DEFAULT_VEHTYPE" speed="0.00" pos="5.10" lane="A2B2_0" slope="0.00"/>
    </timestep>
    <timestep time="2.00">
        <vehicle id="0" x="98.40" y="181.70" angle="180.00" type="DEFAULT_VEHTYPE" speed="4.24" pos="11.10" lane="B2B1_0" slope="0.00"/>
        <vehicle id="1" x="10.62" y="198.40" angle="90.00" type="DEFAULT_VEHTYPE" speed="2.32" pos="7.42" lane="A2B2_0" slope="0.00"/>
        <vehicle id="2" x="191.70" y="1.60" angle="270.00" type="DEFAULT_VEHTYPE" speed="0.00" pos="5.10" lane="C0B0_0" slope="0.00"/>
    </timestep>
    <timestep time="3.00">
        <vehicle id="0" x="98.40" y="175.50" angle="180.00" type="DEFAULT_VEHTYPE" speed="6.20" pos="17.30" lane="B2B1_0" slope="0.00"/>
        <vehicle id="1" x="15.41" y="198.40" angle="90.00" type="DEFAULT_VEHTYPE" speed="4.78" pos="12.21" lane="A2B2_0" slope="0.00"/>
        <vehicle id="2" x="190.40" y="1.60" angle="270.00" type="DEFAULT_VEHTYPE" speed="1.30" pos="6.40" lane="C0B0_0" slope="0.00"/>
        <vehicle id="3" x="201.60" y="112.30" angle="0.00" type="DEFAULT_VEHTYPE" speed="0.00" pos="5.10" lane="C1C2_0" slope="0.00"/>
    </timestep>
    <timestep time="4.00">
        <vehicle id="0" x="98.40" y="166.87" angle="180.00" type="DEFAULT_VEHTYPE" speed="8.63" pos="25.93" lane="B2B1_0" slope="0.00"/>
        <vehicle id="1" x="21.92" y="198.40" angle="90.00" type="DEFAULT_VEHTYPE" speed="6.51" pos="18.72" lane="A2B2_0" slope="0.00"/>
        <vehicle id="2" x="187.43" y="1.60" angle="270.00" type="DEFAULT_VEHTYPE" speed="2.96" pos="9.37" lane="C0B0_0" slope="0.00"/>
        <vehicle id="3" x="201.60" y="114.48" angle="0.00" type="DEFAULT_VEHTYPE" speed="2.18" pos="7.28" lane="C1C2_0" slope="0.00"/>
        <vehicle id="4" x="87.70" y="101.60" angle="270.00" type="DEFAULT_VEHTYPE" speed="0.00" pos="5.10" lane="B1A1_0" slope="0.00"/>
    </timestep>
    <timestep time="5.00">
        <vehicle id="0" x="98.40" y="156.82" angle="180.00" type="DEFAULT_VEHTYPE" speed="10.05" pos="35.98" lane="B2B1_0" slope="0.00"/>
        <vehicle id="1" x="30.22" y="198.40" angle="90.00" type="DEFAULT_VEHTYPE" speed="8.30" pos="27.02" lane="A2B2_0" slope="0.00"/>
        <vehicle id="2" x="182.50" y="1.60" angle="270.00" type="DEFAULT_VEHTYPE" speed="4.93" pos="14.30" lane="C0B0_0" slope="0.00"/>
        <vehicle id="3" x="201.60" y="119.10" angle="0.00" type="DEFAULT_VEHTYPE" speed="4.62" pos="11.90" lane="C1C2_0" slope="0.00"/>
        <vehicle id="4" x="85.29" y="101.60" angle="270.00" type="DEFAULT_VEHTYPE" speed="2.41" pos="7.51" lane="B1A1_0" slope="0.00"/>
        <vehicle id="5" x="-1.60" y="191.70" angle="180.00" type="DEFAULT_VEHTYPE" speed="0.00" pos="5.10" lane="A2A1_0" slope="0.00"/>
    </timestep>
    <timestep time="6.00">
        <vehicle id="0" x="98.40" y="145.36" angle="180.00" type="DEFAULT_VEHTYPE" speed="11.46" pos="47.44" lane="B2B1_0" slope="0.00"/>
        <vehicle id="1" x="40.21" y="198.40" angle="90.00" type="DEFAULT_VEHTYPE" speed="9.99" pos="37.01" lane="A2B2_0" slope="0.00"/>
        <vehicle id="2" x="175.66" y="1.60" angle="270.00" type="DEFAULT_VEHTYPE" speed="6.84" pos="21.14" lane="C0B0_0" slope="0.00"/>
        <vehicle id="3" x="201.60" y="125.90" angle="0.00" type="DEFAULT_VEHTYPE" speed="6.80" pos="18.70" lane="C1C2_0" slope="0.00"/>
        <vehicle id="4" x="81.41" y="101.60" angle="270.00" type="DEFAULT_VEHTYPE" speed="3.87" pos="11.39" lane="B1A1_0" slope="0.00"/>
        <vehicle id="5" x="-1.60" y="190.32" angle="180.00" type="DEFAULT_VEHTYPE" speed="1.38" pos="6.48" lane="A2A1_0" slope="0.00"/>
        <vehicle id="6" x="1.60" y="8.30" angle="0.00" type="DEFAULT_VEHTYPE" speed="0.00" pos="5.10" lane="A0A1_0" slope="0.00"/>
    </timestep>
    <timestep time="7.00">
        <vehicle id="0" x="98.40" y="132.39" angle="180.00" type="DEFAULT_VEHTYPE" speed="12.96" pos="60.41" lane="B2B1_0" slope="0.00"/>
        <vehicle id="1" x="52.47" y="198.40" angle="90.00" type="DEFAULT_VEHTYPE" speed="12.26" pos="49.27" lane="A2B2_0" slope="0.00"/>
        <vehicle id="2" x="166.36" y="1.60" angle="270.00" type="DEFAULT_VEHTYPE" speed="9.31" pos="30.44" lane="C0B0_0" slope="0.00"/>
        <vehicle id="3" x="201.60" y="134.09" angle="0.00" type="DEFAULT_VEHTYPE" speed="8.19" pos="26.89" lane="C1C2_0" slope="0.00"/>
        <vehicle id="4" x="75.11" y="101.60" angle="270.00" type="DEFAULT_VEHTYPE" speed="6.30" pos="17.69" lane="B1A1_0" slope="0.00"/>
        <vehicle id="5" x="-1.60" y="186.43" angle="180.00" type="DEFAULT_VEHTYPE" speed="3.90" pos="10.37" lane="A2A1_0" slope="0.00"/>
        <vehicle id="6" x="1.60" y="9.64" angle="0.00" type="DEFAULT_VEHTYPE" speed="1.34" pos="6.44" lane="A0A1_0" slope="0.00"/>
        <vehicle id="7" x="98.40" y="187.70" angle="180.00" type="DEFAULT_VEHTYPE" speed="0.00" pos="5.10" lane="B2B1_0" slope="0.00"/>
    </timestep>
    <timestep time="8.00">
        <vehicle id="0" x="98.40" y="117.80" angle="180.00" type="DEFAULT_VEHTYPE" speed="14.59" pos="75.00" lane="B2B1_0" slope="0.00"/>
        <vehicle id="1" x="64.38" y="198.40" angle="90.00" type="DEFAULT_VEHTYPE" speed="11.92" pos="61.18" lane="A2B2_0" slope="0.00"/>
        <vehicle id="2" x="155.51" y="1.60" angle="270.00" type="DEFAULT_VEHTYPE" speed="10.85" pos="41.29" lane="C0B0_0" slope="0.00"/>
        <vehicle id="3" x="201.60" y="143.68" angle="0.00" type="DEFAULT_VEHTYPE" speed="9.59" pos="36.48" lane="C1C2_0" slope="0.00"/>
        <vehicle id="4" x="66.69" y="101.60" angle="270.00" type="DEFAULT_VEHTYPE" speed="8.43" pos="26.11" lane="B1A1_0" slope="0.00"/>
        <vehicle id="5" x="-1.60" y="180.18" angle="180.00" type="DEFAULT_VEHTYPE" speed="6.25" pos="16.62" lane="A2A1_0" slope="0.00"/>
        <vehicle id="6" x="1.60" y="13.04" angle="0.00" type="DEFAULT_VEHTYPE" speed="3.40" pos="9.84" lane="A0A1_0" slope="0.00"/>
        <vehicle id="7" x="98.40" y="185.86" angle="180.00" type="DEFAULT_VEHTYPE" speed="1.84" pos="6.94" lane="B2B1_0" slope="0.00"/>
        <vehicle id="8" x="-1.60" y="191.70" angle="180.00" type="DEFAULT_VEHTYPE" speed="0.00" pos="5.10" lane="A2A1_0" slope="0.00"/>
    </timestep>
    <timestep time="9.00">
        <vehicle id="0" x="98.40" y="103.08" angle="180.00" type="DEFAULT_VEHTYPE" speed="14.72" pos="4.12" lane=":B1_1_0" slope="0.00"/>
        <vehicle id="1" x="77.03" y="198.40" angle="90.00" type="DEFAULT_VEHTYPE" speed="12.65" pos="73.83" lane="A2B2_0" slope="0.00"/>
        <vehicle id="2" x="142.44" y="1.60" angle="270.00" type="DEFAULT_VEHTYPE" speed="13.07" pos="54.36" lane="C0B0_0" slope="0.00"/>
        <vehicle id="3" x="201.60" y="155.31" angle="0.00" type="DEFAULT_VEHTYPE" speed="11.63" pos="48.11" lane="C1C2_0" slope="0.00"/>
        <vehicle id="4" x="56.47" y="101.60" angle="270.00" type="DEFAULT_VEHTYPE" speed="10.22" pos="36.33" lane="B1A1_0" slope="0.00"/>
        <vehicle id="5" x="-1.60" y="171.72" angle="180.00" type="DEFAULT_VEHTYPE" speed="8.46" pos="25.08" lane="A2A1_0" slope="0.00"/>
        <vehicle id="6" x="1.60" y="18.04" angle="0.00" type="DEFAULT_VEHTYPE" speed="5.00" pos="14.84" lane="A0A1_0" slope="0.00"/>
        <vehicle id="7" x="98.40" y="181.84" angle="180.00" type="DEFAULT_VEHTYPE" speed="4.03" pos="10.96" lane="B2B1_0" slope="0.00"/>
        <vehicle id="8" x="-1.60" y="190.33" angle="180.00" type="DEFAULT_VEHTYPE" speed="1.37" pos="6.47" lane="A2A1_0" slope="0.00"/>
        <vehicle id="9" x="187.70" y="101.60" angle="270.00" type="DEFAULT_VEHTYPE" speed="0.00" pos="5.10" lane="C1B1_0" slope="0.00"/>
    </timestep>
    <timestep time="10.00">
        <vehicle id="0" x="98.40" y="88.67" angle="180.00" type="DEFAULT_VEHTYPE" speed="14.41" pos="4.13" lane="B1B0_0" slope="0.00"/>
        <vehicle id="1" x="86.05" y="198.40" angle="90.00" type="DEFAULT_VEHTYPE" speed="9.02" pos="82.85" lane="A2B2_0" slope="0.00"/>
        <vehicle id="2" x="129.38" y="1.60" angle="270.00" type="DEFAULT_VEHTYPE" speed="13.05" pos="67.42" lane="C0B0_0" slope="0.00"/>
        <vehicle id="3" x="201.60" y="169.13" angle="0.00" type="DEFAULT_VEHTYPE" speed="13.83" pos="61.93" lane="C1C2_0" slope="0.00"/>
        <vehicle id="4" x="43.70" y="101.60" angle="270.00" type="DEFAULT_VEHTYPE" speed="12.77" pos="49.10" lane="B1A1_0" slope="0.00"/>
        <vehicle id="5" x="-1.60" y="160.93" angle="180.00" type="DEFAULT_VEHTYPE" speed="10.79" pos="35.87" lane="A2A1_0" slope="0.00"/>
        <vehicle id="6" x="1.60" y="24.89" angle="0.00" type="DEFAULT_VEHTYPE" speed="6.86" pos="21.69" lane="A0A1_0" slope="0.00"/>
        <vehicle id="7" x="98.40" y="176.21" angle="180.00" type="DEFAULT_VEHTYPE" speed="5.62" pos="16.59" lane="B2B1_0" slope="0.00"/>
        <vehicle id="8" x="-1.60" y="187.26" angle="180.00" type="DEFAULT_VEHTYPE" speed="3.07" pos="9.54" lane="A2A1_0" slope="0.00"/>
        <vehicle id="9" x="185.62" y="101.60" angle="270.00" type="DEFAULT_VEHTYPE" speed="2.08" pos="7.18" lane="C1B1_0" slope="0.00"/>
    </timestep>
    <timestep time="11.00">
        <vehicle id="0" x="98.40" y="74.03" angle="180.00" type="DEFAULT_VEHTYPE" speed="14.65" pos="18.77" lane="B1B0_0" slope="0.00"/>
        <vehicle id="1" x="91.94" y="198.40" angle="90.00" type="DEFAULT_VEHTYPE" speed="5.89" pos="88.74" lane="A2B2_0" slope="0.00"/>
        <vehicle id="2" x="116.23" y="1.60" angle="270.00" type="DEFAULT_VEHTYPE" speed="13.16" pos="80.57" lane="C0B0_0" slope="0.00"/>
        <vehicle id="3" x="201.60" y="183.67" angle="0.00" type="DEFAULT_VEHTYPE" speed="14.54" pos="76.47" lane="C1C2_0" slope="0.00"/>
        <vehicle id="4" x="30.08" y="101.60" angle="270.00" type="DEFAULT_VEHTYPE" speed="13.62" pos="62.72" lane="B1A1_0" slope="0.00"/>
        <vehicle id="5" x="-1.60" y="149.99" angle="180.00" type="DEFAULT_VEHTYPE" speed="10.94" pos="46.81" lane="A2A1_0" slope="0.00"/>
        <vehicle id="6" x="1.60" y="34.28" angle="0.00" type="DEFAULT_VEHTYPE" speed="9.39" pos="31.08" lane="A0A1_0" slope="0.00"/>
        <vehicle id="7" x="98.40" y="168.97" angle="180.00" type="DEFAULT_VEHTYPE" speed="7.24" pos="23.83" lane="B2B1_0" slope="0.00"/>
        <vehicle id="8" x="-1.60" y="182.45" angle="180.00" type="DEFAULT_VEHTYPE" speed="4.82" pos="14.35" lane="A2A1_0" slope="0.00"/>
        <vehicle id="9" x="180.96" y="101.60" angle="270.00" type="DEFAULT_VEHTYPE" speed="4.66" pos="11.84" lane="C1B1_0" slope="0.00"/>
    </timestep>
    <timestep time="12.00">
        <vehicle id="0" x="98.40" y="60.27" angle="180.00" type="DEFAULT_VEHTYPE" speed="13.75" pos="32.53" lane="B1B0_0" slope="0.00"/>
        <vehicle id="1" x="94.34" y="200.13" angle="66.99" type="DEFAULT_VEHTYPE" speed="3.33" pos="1.03" lane=":B2_11_0" slope="0.00"/>
        <vehicle id="10" x="187.70" y="101.60" angle="270.00" type="DEFAULT_VEHTYPE" speed="0.00" pos="5.10" lane="C1B1_0" slope="0.00"/>
        <vehicle id="2" x="107.22" y="1.60" angle="270.00" type="DEFAULT_VEHTYPE" speed="9.01" pos="89.58" lane="C0B0_0" slope="0.00"/>
        <vehicle id="3" x="201.60" y="194.55" angle="0.00" type="DEFAULT_VEHTYPE" speed="10.87" pos="87.35" lane="C1C2_0" slope="0.00"/>
        <vehicle id="4" x="19.00" y="101.60" angle="270.00" type="DEFAULT_VEHTYPE" speed="11.08" pos="73.80" lane="B1A1_0" slope="0.00"/>
        <vehicle id="5" x="-1.60" y="138.50" angle="180.00" type="DEFAULT_VEHTYPE" speed="11.49" pos="58.30" lane="A2A1_0" slope="0.00"/>
        <vehicle id="6" x="1.60" y="45.43" angle="0.00" type="DEFAULT_VEHTYPE" speed="11.15" pos="42.23" lane="A0A1_0" slope="0.00"/>
        <vehicle id="7" x="98.40" y="160.02" angle="180.00" type="DEFAULT_VEHTYPE" speed="8.95" pos="32.78" lane="B2B1_0" slope="0.00"/>
        <vehicle id="8" x="-1.60" y="175.43" angle="180.00" type="DEFAULT_VEHTYPE" speed="7.02" pos="21.37" lane="A2A1_0" slope="0.00"/>
        <vehicle id="9" x="174.94" y="101.60" angle="270.00" type="DEFAULT_VEHTYPE" speed="6.02" pos="17.86" lane="C1B1_0" slope="0.00"/>
    </timestep>
    <timestep time="13.00">
        <vehicle id="0" x="98.40" y="46.60" angle="180.00" type="DEFAULT_VEHTYPE" speed="13.67" pos="46.20" lane="B1B0_0" slope="0.00"/>
        <vehicle id="1" x="92.19" y="201.60" angle="344.61" type="DEFAULT_VEHTYPE" speed="2.80" pos="0.61" lane="B2A2_0" slope="0.00"/>
        <vehicle id="10" x="185.43" y="101.60" angle="270.00" type="DEFAULT_VEHTYPE" speed="2.27" pos="7.37" lane="C1B1_0" slope="0.00"/>
        <vehicle id="13" x="-1.60" y="87.70" angle="180.00" type="DEFAULT_VEHTYPE" speed="0.00" pos="5.10" lane="A1A0_0" slope="0.00"/>
        <vehicle id="2" x="102.21" y="4.32" angle="303.03" type="DEFAULT_VEHTYPE" speed="6.07" pos="6.05" lane=":B0_3_0" slope="0.00"/>
        <vehicle id="3" x="200.19" y="200.53" angle="342.96" type="DEFAULT_VEHTYPE" speed="6.37" pos="4.12" lane=":C2_0_0" slope="0.00"/>
        <vehicle id="4" x="11.05" y="101.60" angle="270.00" type="DEFAULT_VEHTYPE" speed="7.94" pos="81.75" lane="B1A1_0" slope="0.00"/>
        <vehicle id="5" x="-1.60" y="127.66" angle="180.00" type="DEFAULT_VEHTYPE" speed="10.84" pos="69.14" lane="A2A1_0" slope="0.00"/>
        <vehicle id="6" x="1.60" y="58.35" angle="0.00" type="DEFAULT_VEHTYPE" speed="12.92" pos="55.15" lane="A0A1_0" slope="0.00"/>
        <vehicle id="7" x="98.40" y="148.81" angle="180.00" type="DEFAULT_VEHTYPE" speed="11.21" pos="43.99" lane="B2B1_0" slope="0.00"/>
        <vehicle id="8" x="-1.60" y="166.69" angle="180.00" type="DEFAULT_VEHTYPE" speed="8.74" pos="30.11" lane="A2A1_0" slope="0.00"/>
        <vehicle id="9" x="166.72" y="101.60" angle="270.00" type="DEFAULT_VEHTYPE" speed="8.22" pos="26.08" lane="C1B1_0" slope="0.00"/>
    </timestep>
    <timestep time="14.00">
        <vehicle id="0" x="98.40" y="31.95" angle="180.00" type="DEFAULT_VEHTYPE" speed="14.65" pos="60.85" lane="B1B0_0" slope="0.00"/>
        <vehicle id="1" x="87.00" y="201.60" angle="270.00" type="DEFAULT_VEHTYPE" speed="5.19" pos="5.80" lane="B2A2_0" slope="0.00"/>
        <vehicle id="10" x="181.13" y="101.60" angle="270.00" type="DEFAULT_VEHTYPE" speed="4.30" pos="11.67" lane="C1B1_0" slope="0.00"/>
        <vehicle id="13" x="-1.60" y="85.69" angle="180.00" type="DEFAULT_VEHTYPE" speed="2.01" pos="7.11" lane="A1A0_0" slope="0.00"/>
        <vehicle id="14" x="198.40" y="87.70" angle="180.00" type="DEFAULT_VEHTYPE" speed="0.00" pos="5.10" lane="C1C0_0" slope="0.00"/>
        <vehicle id="2" x="101.60" y="9.55" angle="354.94" type="DEFAULT_VEHTYPE" speed="5.33" pos="2.35" lane="B0B1_0" slope="0.00"/>
        <vehicle id="3" x="194.45" y="201.60" angle="276.67" type="DEFAULT_VEHTYPE" speed="5.97" pos="2.35" lane="C2B2_0" slope="0.00"/>
        <vehicle id="4" x="7.61" y="101.60" angle="270.00" type="DEFAULT_VEHTYPE" speed="3.44" pos="85.19" lane="B1A1_0" slope="0.00"/>
        <vehicle id="5" x="-1.60" y="116.37" angle="180.00" type="DEFAULT_VEHTYPE" speed="11.29" pos="80.43" lane="A2A1_0" slope="0.00"/>
        <vehicle id="6" x="1.60" y="72.15" angle="0.00" type="DEFAULT_VEHTYPE" speed="13.80" pos="68.95" lane="A0A1_0" slope="0.00"/>
        <vehicle id="7" x="98.40" y="137.74" angle="180.00" type="DEFAULT_VEHTYPE" speed="11.07" pos="55.06" lane="B2B1_0" slope="0.00"/>
        <vehicle id="8" x="-1.60" y="155.76" angle="180.00" type="DEFAULT_VEHTYPE" speed="10.93" pos="41.04" lane="A2A1_0" slope="0.00"/>
        <vehicle id="9" x="156.85" y="101.60" angle="270.00" type="DEFAULT_VEHTYPE" speed="9.87" pos="35.95" lane="C1B1_0" slope="0.00"/>
    </timestep>
    <timestep time="15.00">
        <vehicle id="0" x="98.40" y="20.22" angle="180.00" type="DEFAULT_VEHTYPE" speed="11.73" pos="72.58" lane="B1B0_0" slope="0.00"/>
        <vehicle id="1" x="80.47" y="201.60" angle="270.00" type="DEFAULT_VEHTYPE" speed="6.53" pos="12.33" lane="B2A2_0" slope="0.00"/>
        <vehicle id="10" x="175.27" y="101.60" angle="270.00" type="DEFAULT_VEHTYPE" speed="5.86" pos="17.53" lane="C1B1_0" slope="0.00"/>
        <vehicle id="13" x="-1.60" y="81.85" angle="180.00" type="DEFAULT_VEHTYPE" speed="3.84" pos="10.95" lane="A1A0_0" slope="0.00"/>
        <vehicle id="14" x="198.40" y="86.19" angle="180.00" type="DEFAULT_VEHTYPE" speed="1.51" pos="6.61" lane="C1C0_0" slope="0.00"/>
        <vehicle id="15" x="187.70" y="101.60" angle="270.00" type="DEFAULT_VEHTYPE" speed="0.00" pos="5.10" lane="C1B1_0" slope="0.00"/>
        <vehicle id="2" x="101.60" y="16.55" angle="0.00" type="DEFAULT_VEHTYPE" speed="7.00" pos="9.35" lane="B0B1_0" slope="0.00"/>
        <vehicle id="3" x="186.94" y="201.60" angle="270.00" type="DEFAULT_VEHTYPE" speed="7.51" pos="9.86" lane="C2B2_0" slope="0.00"/>
        <vehicle id="4" x="7.33" y="101.60" angle="270.00" type="DEFAULT_VEHTYPE" speed="0.28" pos="85.47" lane="B1A1_0" slope="0.00"/>
        <vehicle id="5" x="-1.60" y="107.94" angle="180.00" type="DEFAULT_VEHTYPE" speed="8.43" pos="88.86" lane="A2A1_0" slope="0.00"/>
        <vehicle id="6" x="1.60" y="84.58" angle="0.00" type="DEFAULT_VEHTYPE" speed="12.43" pos="81.38" lane="A0A1_0" slope="0.00"/>
        <vehicle id="7" x="98.40" y="126.15" angle="180.00" type="DEFAULT_VEHTYPE" speed="11.59" pos="66.65" lane="B2B1_0" slope="0.00"/>
        <vehicle id="8" x="-1.60" y="142.82" angle="180.00" type="DEFAULT_VEHTYPE" speed="12.94" pos="53.98" lane="A2A1_0" slope="0.00"/>
        <vehicle id="9" x="146.04" y="101.60" angle="270.00" type="DEFAULT_VEHTYPE" speed="10.81" pos="46.76" lane="C1B1_0" slope="0.00"/>
    </timestep>
    <timestep time="16.00">
        <vehicle id="0" x="98.40" y="12.23" angle="180.00" type="DEFAULT_VEHTYPE" speed="7.99" pos="80.57" lane="B1B0_0" slope="0.00"/>
        <vehicle id="1" x="72.15" y="201.60" angle="270.00" type="DEFAULT_VEHTYPE" speed="8.32" pos="20.65" lane="B2A2_0" slope="0.00"/>
        <vehicle id="10" x="167.91" y="101.60" angle="270.00" type="DEFAULT_VEHTYPE" speed="7.36" pos="24.89" lane="C1B1_0" slope="0.00"/>
        <vehicle id="12" x="191.70" y="201.60" angle="270.00" type="DEFAULT_VEHTYPE" speed="0.00" pos="5.10" lane="C2B2_0" slope="0.00"/>
        <vehicle id="13" x="-1.60" y="76.48" angle="180.00" type="DEFAULT_VEHTYPE" speed="5.37" pos="16.32" lane="A1A0_0" slope="0.00"/>
        <vehicle id="14" x="198.40" y="82.49" angle="180.00" type="DEFAULT_VEHTYPE" speed="3.70" pos="10.31" lane="C1C0_0" slope="0.00"/>
        <vehicle id="15" x="185.65" y="101.60" angle="270.00" type="DEFAULT_VEHTYPE" speed="2.05" pos="7.15" lane="C1B1_0" slope="0.00"/>
        <vehicle id="2" x="101.60" y="25.92" angle="0.00" type="DEFAULT_VEHTYPE" speed="9.36" pos="18.72" lane="B0B1_0" slope="0.00"/>
        <vehicle id="3" x="178.02" y="201.60" angle="270.00" type="DEFAULT_VEHTYPE" speed="8.92" pos="18.78" lane="C2B2_0" slope="0.00"/>
        <vehicle id="4" x="7.31" y="101.60" angle="270.00" type="DEFAULT_VEHTYPE" speed="0.02" pos="85.49" lane="B1A1_0" slope="0.00"/>
        <vehicle id="5" x="-1.15" y="104.05" angle="174.82" type="DEFAULT_VEHTYPE" speed="3.93" pos="3.19" lane=":A1_1_0" slope="0.00"/>
        <vehicle id="6" x="1.60" y="92.51" angle="0.00" type="DEFAULT_VEHTYPE" speed="7.93" pos="89.31" lane="A0A1_0" slope="0.00"/>
        <vehicle id="7" x="98.40" y="114.95" angle="180.00" type="DEFAULT_VEHTYPE" speed="11.20" pos="77.85" lane="B2B1_0" slope="0.00"/>
        <vehicle id="8" x="-1.60" y="129.80" angle="180.00" type="DEFAULT_VEHTYPE" speed="13.02" pos="67.00" lane="A2A1_0" slope="0.00"/>
        <vehicle id="9" x="134.48" y="101.60" angle="270.00" type="DEFAULT_VEHTYPE" speed="11.56" pos="58.32" lane="C1B1_0" slope="0.00"/>
    </timestep>
    <timestep time="17.00">
        <vehicle id="0" x="98.40" y="8.25" angle="180.00" type="DEFAULT_VEHTYPE" speed="3.98" pos="84.55" lane="B1B0_0" slope="0.00"/>
        <vehicle id="1" x="61.73" y="201.60" angle="270.00" type="DEFAULT_VEHTYPE" speed="10.41" pos="31.07" lane="B2A2_0" slope="0.00"/>
        <vehicle id="10" x="158.77" y="101.60" angle="270.00" type="DEFAULT_VEHTYPE" speed="9.15" pos="34.03" lane="C1B1_0" slope="0.00"/>
        <vehicle id="12" x="190.14" y="201.60" angle="270.00" type="DEFAULT_VEHTYPE" speed="1.56" pos="6.66" lane="C2B2_0" slope="0.00"/>
        <vehicle id="13" x="-1.60" y="68.68" angle="180.00" type="DEFAULT_VEHTYPE" speed="7.80" pos="24.12" lane="A1A0_0" slope="0.00"/>
        <vehicle id="14" x="198.40" y="76.34" angle="180.00" type="DEFAULT_VEHTYPE" speed="6.15" pos="16.46" lane="C1C0_0" slope="0.00"/>
        <vehicle id="15" x="181.38" y="101.60" angle="270.00" type="DEFAULT_VEHTYPE" speed="4.27" pos="11.42" lane="C1B1_0" slope="0.00"/>
        <vehicle id="17" x="112.30" y="-1.60" angle="90.00" type="DEFAULT_VEHTYPE" speed="0.00" pos="5.10" lane="B0C0_0" slope="0.00"/>
        <vehicle id="2" x="101.60" y="37.86" angle="0.00" type="DEFAULT_VEHTYPE" speed="11.94" pos="30.66" lane="B0B1_0" slope="0.00"/>
        <vehicle id="3" x="167.07" y="201.60" angle="270.00" type="DEFAULT_VEHTYPE" speed="10.96" pos="29.73" lane="C2B2_0" slope="0.00"/>
        <vehicle id="4" x="7.30" y="101.60" angle="270.00" type="DEFAULT_VEHTYPE" speed="0.00" pos="85.50" lane="B1A1_0" slope="0.00"/>
        <vehicle id="5" x="-1.05" y="103.35" angle="173.67" type="DEFAULT_VEHTYPE" speed="0.71" pos="3.89" lane=":A1_1_0" slope="0.00"/>
        <vehicle id="6" x="4.27" y="97.76" angle="32.52" type="DEFAULT_VEHTYPE" speed="6.30" pos="6.00" lane=":A1_6_0" slope="0.00"/>
        <vehicle id="7" x="98.40" y="107.43" angle="180.00" type="DEFAULT_VEHTYPE" speed="7.52" pos="85.37" lane="B2B1_0" slope="0.00"/>
        <vehicle id="8" x="-1.60" y="120.44" angle="180.00" type="DEFAULT_VEHTYPE" speed="9.36" pos="76.36" lane="A2A1_0" slope="0.00"/>
        <vehicle id="9" x="123.34" y="101.60" angle="270.00" type="DEFAULT_VEHTYPE" speed="11.14" pos="69.46" lane="C1B1_0" slope="0.00"/>
    </timestep>
    <timestep time="18.00">
        <vehicle id="0" x="96.18" y="2.51" angle="207.04" type="DEFAULT_VEHTYPE" speed="6.52" pos="5.47" lane=":B0_0_0" slope="0.00"/>
        <vehicle id="1" x="49.80" y="201.60" angle="270.00" type="DEFAULT_VEHTYPE" speed="11.93" pos="43.00" lane="B2A2_0" slope="0.00"/>
        <vehicle id="10" x="148.17" y="101.60" angle="270.00" type="DEFAULT_VEHTYPE" speed="10.60" pos="44.63" lane="C1B1_0" slope="0.00"/>
        <vehicle id="11" x="101.60" y="12.30" angle="0.00" type="DEFAULT_VEHTYPE" speed="0.00" pos="5.10" lane="B0B1_0" slope="0.00"/>
        <vehicle id="12" x="186.83" y="201.60" angle="270.00" type="DEFAULT_VEHTYPE" speed="3.31" pos="9.97" lane="C2B2_0" slope="0.00"/>
        <vehicle id="13" x="-1.60" y="59.44" angle="180.00" type="DEFAULT_VEHTYPE" speed="9.24" pos="33.36" lane="A1A0_0" slope="0.00"/>
        <vehicle id="14" x="198.40" y="68.23" angle="180.00" type="DEFAULT_VEHTYPE" speed="8.12" pos="24.57" lane="C1C0_0" slope="0.00"/>
        <vehicle id="15" x="174.87" y="101.60" angle="270.00" type="DEFAULT_VEHTYPE" speed="6.51" pos="17.93" lane="C1B1_0" slope="0.00"/>
        <vehicle id="16" x="101.60" y="112.30" angle="0.00" type="DEFAULT_VEHTYPE" speed="0.00" pos="5.10" lane="B1B2_0" slope="0.00"/>
        <vehicle id="17" x="114.81" y="-1.60" angle="90.00" type="DEFAULT_VEHTYPE" speed="2.51" pos="7.61" lane="B0C0_0" slope="0.00"/>
        <vehicle id="18" x="187.70" y="101.60" angle="270.00" type="DEFAULT_VEHTYPE" speed="0.00" pos="5.10" lane="C1B1_0" slope="0.00"/>
        <vehicle id="2" x="101.60" y="51.72" angle="0.00" type="DEFAULT_VEHTYPE" speed="13.87" pos="44.52" lane="B0B1_0" slope="0.00"/>
        <vehicle id="3" x="154.38" y="201.60" angle="270.00" type="DEFAULT_VEHTYPE" speed="12.68" pos="42.42" lane="C2B2_0" slope="0.00"/>
        <vehicle id="4" x="7.30" y="101.60" angle="270.00" type="DEFAULT_VEHTYPE" speed="0.00" pos="85.50" lane="B1A1_0" slope="0.00"/>
        <vehicle id="5" x="-1.03" y="103.32" angle="173.43" type="DEFAULT_VEHTYPE" speed="0.04" pos="3.93" lane=":A1_1_0" slope="0.00"/>
        <vehicle id="6" x="9.87" y="98.40" angle="86.22" type="DEFAULT_VEHTYPE" speed="5.70" pos="2.67" lane="A1B1_0" slope="0.00"/>
        <vehicle id="7" x="100.21" y="101.25" angle="160.69" type="DEFAULT_VEHTYPE" speed="6.57" pos="2.27" lane=":B1_16_0" slope="0.00"/>
        <vehicle id="8" x="-1.60" y="114.25" angle="180.00" type="DEFAULT_VEHTYPE" speed="6.19" pos="82.55" lane="A2A1_0" slope="0.00"/>
        <vehicle id="9" x="114.31" y="101.60" angle="270.00" type="DEFAULT_VEHTYPE" speed="9.03" pos="78.49" lane="C1B1_0" slope="0.00"/>
    </timestep>
    <timestep time="19.00">
        <vehicle id="0" x="89.85" y="1.60" angle="266.66" type="DEFAULT_VEHTYPE" speed="6.50" pos="2.95" lane="B0A0_0" slope="0.00"/>
        <vehicle id="1" x="36.81" y="201.60" angle="270.00" type="DEFAULT_VEHTYPE" speed="12.99" pos="55.99" lane="B2A2_0" slope="0.00"/>
        <vehicle id="10" x="135.39" y="101.60" angle="270.00" type="DEFAULT_VEHTYPE" speed="12.78" pos="57.41" lane="C1B1_0" slope="0.00"/>
        <vehicle id="11" x="101.60" y="13.70" angle="0.00" type="DEFAULT_VEHTYPE" speed="1.40" pos="6.50" lane="B0B1_0" slope="0.00"/>
        <vehicle id="12" x="181.27" y="201.60" angle="270.00" type="DEFAULT_VEHTYPE" speed="5.56" pos="15.53" lane="C2B2_0" slope="0.00"/>
        <vehicle id="13" x="-1.60" y="48.44" angle="180.00" type="DEFAULT_VEHTYPE" speed="11.00" pos="44.36" lane="A1A0_0" slope="0.00"/>
        <vehicle id="14" x="198.40" y="58.38" angle="180.00" type="DEFAULT_VEHTYPE" speed="9.85" pos="34.42" lane="C1C0_0" slope="0.00"/>
        <vehicle id="15" x="166.16" y="101.60" angle="270.00" type="DEFAULT_VEHTYPE" speed="8.71" pos="26.64" lane="C1B1_0" slope="0.00"/>
        <vehicle id="16" x="101.60" y="114.52" angle="0.00" type="DEFAULT_VEHTYPE" speed="2.22" pos="7.32" lane="B1B2_0" slope="0.00"/>
        <vehicle id="17" x="119.43" y="-1.60" angle="90.00" type="DEFAULT_VEHTYPE" speed="4.62" pos="12.23" lane="B0C0_0" slope="0.00"/>
        <vehicle id="18" x="185.32" y="101.60" angle="270.00" type="DEFAULT_VEHTYPE" speed="2.38" pos="7.48" lane="C1B1_0" slope="0.00"/>
        <vehicle id="19" x="198.40" y="87.70" angle="180.00" type="DEFAULT_VEHTYPE" speed="0.00" pos="5.10" lane="C1C0_0" slope="0.00"/>
        <vehicle id="2" x="101.60" y="65.62" angle="0.00" type="DEFAULT_VEHTYPE" speed="13.89" pos="58.42" lane="B0B1_0" slope="0.00"/>
        <vehicle id="3" x="139.65" y="201.60" angle="270.00" type="DEFAULT_VEHTYPE" speed="14.74" pos="57.15" lane="C2B2_0" slope="0.00"/>
        <vehicle id="4" x="7.30" y="101.60" angle="270.00" type="DEFAULT_VEHTYPE" speed="0.00" pos="85.50" lane="B1A1_0" slope="0.00"/>
        <vehicle id="5" x="0.25" y="101.18" angle="160.29" type="DEFAULT_VEHTYPE" speed="2.50" pos="2.36" lane=":A1_9_0" slope="0.00"/>
        <vehicle id="6" x="17.59" y="98.40" angle="90.00" type="DEFAULT_VEHTYPE" speed="7.72" pos="10.39" lane="A1B1_0" slope="0.00"/>
        <vehicle id="7" x="105.29" y="98.67" angle="112.04" type="DEFAULT_VEHTYPE" speed="5.93" pos="8.20" lane=":B1_16_0" slope="0.00"/>
        <vehicle id="8" x="-1.60" y="111.32" angle="180.00" type="DEFAULT_VEHTYPE" speed="2.93" pos="85.48" lane="A2A1_0" slope="0.00"/>
        <vehicle id="9" x="108.89" y="101.60" angle="270.00" type="DEFAULT_VEHTYPE" speed="5.41" pos="83.91" lane="C1B1_0" slope="0.00"/>
    </timestep>
    <timestep time="20.00">
        <vehicle id="0" x="81.84" y="1.60" angle="270.00" type="DEFAULT_VEHTYPE" speed="8.01" pos="10.96" lane="B0A0_0" slope="0.00"/>
        <vehicle id="1" x="25.07" y="201.60" angle="270.00" type="DEFAULT_VEHTYPE" speed="11.74" pos="67.73" lane="B2A2_0" slope="0.00"/>
        <vehicle id="10" x="125.31" y="101.60" angle="270.00" type="DEFAULT_VEHTYPE" speed="10.08" pos="67.49" lane="C1B1_0" slope="0.00"/>
        <vehicle id="11" x="101.60" y="17.61" angle="0.00" type="DEFAULT_VEHTYPE" speed="3.92" pos="10.41" lane="B0B1_0" slope="0.00"/>
        <vehicle id="12" x="173.78" y="201.60" angle="270.00" type="DEFAULT_VEHTYPE" speed="7.49" pos="23.02" lane="C2B2_0" slope="0.00"/>
        <vehicle id="13" x="-1.60" y="36.00" angle="180.00" type="DEFAULT_VEHTYPE" speed="12.43" pos="56.80" lane="A1A0_0" slope="0.00"/>
        <vehicle id="14" x="198.40" y="46.54" angle="180.00" type="DEFAULT_VEHTYPE" speed="11.84" pos="46.26" lane="C1C0_0" slope="0.00"/>
        <vehicle id="15" x="156.11" y="101.60" angle="270.00" type="DEFAULT_VEHTYPE" speed="10.05" pos="36.69" lane="C1B1_0" slope="0.00"/>
        <vehicle id="16" x="101.60" y="119.25" angle="0.00" type="DEFAULT_VEHTYPE" speed="4.73" pos="12.05" lane="B1B2_0" slope="0.00"/>
        <vehicle id="17" x="125.39" y="-1.60" angle="90.00" type="DEFAULT_VEHTYPE" speed="5.96" pos="18.19" lane="B0C0_0" slope="0.00"/>